                         Program Version 4.2.1 -  RELEASE  -
|  1> ! B3LYP D3BJ def2-TZVP def2/J RIJCOSX OPT FREQ
|  2> %maxcore 50000
|  3> %pal
|  4> 	nproc 24
|  5> end
|  6> * xyz 0 1
|  7> 	C       -2.93722        1.52603        0.00000
|  8> 	C       -2.36647        0.25144        0.00000
|  9> 	C       -0.40058        1.55287        0.00000
| 10> 	C       -0.94423        0.26649        0.00000
| 11> 	H       -2.95004       -0.65941        0.00000
| 12> 	H       -0.34152       -0.63181        0.00000
| 13> 	S       -1.68019        2.60666        0.00000
| 14> 	H       -3.99352        1.75811        0.00000
| 15> 	H        0.65058        1.80726        0.00000
| 16> *
| 19>                          ****END OF INPUT****
 Total Charge           Charge          ....    0
 Multiplicity           Mult            ....    1
 Number of Electrons    NEL             ....   44
Dispersion correction           -0.015130082
FINAL SINGLE POINT ENERGY      -552.938595114000
Dispersion correction            ... done
Dispersion correction           -0.015292769
FINAL SINGLE POINT ENERGY      -552.946519827846
Dispersion correction            ... done
Dispersion correction           -0.015340936
FINAL SINGLE POINT ENERGY      -552.948857104254
Dispersion correction            ... done
FINAL SINGLE POINT ENERGY      -552.949275383070
FINAL SINGLE POINT ENERGY      -552.949365942586
FINAL SINGLE POINT ENERGY      -552.949377876649
FINAL SINGLE POINT ENERGY      -552.949379066559
Dispersion correction           -0.015338976
FINAL SINGLE POINT ENERGY      -552.949374770731
Dispersion correction            ... done
Dispersion correction           -0.015339543
FINAL SINGLE POINT ENERGY      -552.949379739578
Dispersion correction            ... done
                    ***********************HURRAY********************

CARTESIAN COORDINATES (ANGSTROEM)
---------------------------------
  C     -2.904012    1.490096    0.000005
  C     -2.366339    0.235106   -0.000004
  C     -0.433097    1.516355    0.000005
  C     -0.943945    0.250078   -0.000004
  H     -2.961056   -0.666678   -0.000002
  H     -0.330304   -0.638921   -0.000005
  S     -1.681145    2.698249   -0.000023
  H     -3.944182    1.772665    0.000012
  H      0.600891    1.820691    0.000014

 Multiplicity           Mult            ....    1
 Number of Electrons    NEL             ....   44
 Basis Dimension        Dim             ....  185

ORBITAL ENERGIES
----------------

  NO   OCC          E(Eh)            E(eV)
   0   2.0000     -88.881553     -2418.5900
   1   2.0000     -10.195162      -277.4245
   2   2.0000     -10.195133      -277.4237
   3   2.0000     -10.175405      -276.8868
   4   2.0000     -10.174965      -276.8749
   5   2.0000      -7.957883      -216.5450
   6   2.0000      -5.920170      -161.0960
   7   2.0000      -5.916079      -160.9847
   8   2.0000      -5.915160      -160.9597
   9   2.0000      -0.879716       -23.9383
  10   2.0000      -0.733514       -19.9599
  11   2.0000      -0.724067       -19.7029
  12   2.0000      -0.564421       -15.3587
  13   2.0000      -0.553036       -15.0489
  14   2.0000      -0.516527       -14.0554
  15   2.0000      -0.414750       -11.2859
  16   2.0000      -0.395213       -10.7543
  17   2.0000      -0.387808       -10.5528
  18   2.0000      -0.382014       -10.3951
  19   2.0000      -0.343995        -9.3606
  20   2.0000      -0.253873        -6.9082
  21   2.0000      -0.241280        -6.5656
  22   0.0000      -0.019263        -0.5242
  23   0.0000       0.028210         0.7676
  24   0.0000       0.046713         1.2711
  25   0.0000       0.057287         1.5589
  26   0.0000       0.084931         2.3111

MULLIKEN ATOMIC CHARGES
-----------------------
   0 C :   -0.158962
   1 C :   -0.142219
   2 C :   -0.157426
   3 C :   -0.141378
   4 H :    0.116624
   5 H :    0.116168
   6 S :    0.068484
   7 H :    0.149778
   8 H :    0.148930
Sum of atomic charges:   -0.0000000

LOEWDIN ATOMIC CHARGES
----------------------
   0 C :   -0.405764
   1 C :   -0.209724
   2 C :   -0.405658
   3 C :   -0.209629
   4 H :    0.139606
   5 H :    0.139586
   6 S :    0.701030
   7 H :    0.125325
   8 H :    0.125227

  Mayer bond orders larger than 0.100000
B(  0-C ,  1-C ) :   1.6492 B(  0-C ,  6-S ) :   1.2598 B(  0-C ,  7-H ) :   0.9352
B(  1-C ,  3-C ) :   1.2533 B(  1-C ,  4-H ) :   0.9602 B(  2-C ,  3-C ) :   1.6478
B(  2-C ,  6-S ) :   1.2608 B(  2-C ,  8-H ) :   0.9356 B(  3-C ,  5-H ) :   0.9607

Dispersion correction           -0.015339651
FINAL SINGLE POINT ENERGY      -552.949379882036

DIPOLE MOMENT
-------------
                                X             Y             Z
Electronic contribution:     -0.03721       3.53216      -0.00005
Nuclear contribution   :      0.03933      -3.71863       0.00005
                        -----------------------------------------
Total Dipole Moment    :      0.00211      -0.18647       0.00000
                        -----------------------------------------
Magnitude (a.u.)       :      0.18648
Magnitude (Debye)      :      0.47400

Dispersion correction in the Hessian             ... done   (      0.2 sec)

VIBRATIONAL FREQUENCIES
-----------------------

Scaling factor for frequencies =  1.000000000  (already applied!)

   0:         0.00 cm**-1
   1:         0.00 cm**-1
   2:         0.00 cm**-1
   3:         0.00 cm**-1
   4:         0.00 cm**-1
   5:         0.00 cm**-1
   6:       462.81 cm**-1
   7:       579.54 cm**-1
   8:       620.78 cm**-1
   9:       693.13 cm**-1
  10:       723.55 cm**-1
  11:       758.73 cm**-1
  12:       843.82 cm**-1
  13:       882.16 cm**-1
  14:       884.38 cm**-1
  15:       916.95 cm**-1
  16:      1059.20 cm**-1
  17:      1105.41 cm**-1
  18:      1105.73 cm**-1
  19:      1282.32 cm**-1
  20:      1395.79 cm**-1
  21:      1437.98 cm**-1
  22:      1547.75 cm**-1
  23:      3201.42 cm**-1
  24:      3214.32 cm**-1
  25:      3244.45 cm**-1
  26:      3247.03 cm**-1

IR SPECTRUM
-----------

 Mode    freq (cm**-1)   T**2         TX         TY         TZ
-------------------------------------------------------------------
   6:       462.81    0.756131  (  0.000001  -0.000108  -0.869558)
   7:       579.54    0.000004  ( -0.000907  -0.000095  -0.001803)
   8:       620.78    0.109445  (  0.002936  -0.330811   0.000064)
   9:       693.13    0.000131  (  0.000353  -0.000084   0.011419)
  10:       723.55  129.777428  (  0.000258   0.000304 -11.391990)
  11:       758.73    0.542679  (  0.736665   0.002032  -0.000125)
  12:       843.82   21.667508  (  0.051379  -4.654553  -0.000028)
  13:       882.16    0.347179  ( -0.000155  -0.000290  -0.589219)
  14:       884.38    1.163899  ( -1.078608  -0.022415  -0.000034)
  15:       916.95    0.000000  (  0.000119   0.000455  -0.000427)
  16:      1059.20    2.782188  ( -0.018585   1.667886  -0.000021)
  17:      1105.41    3.648832  ( -0.105543   1.907274  -0.000030)
  18:      1105.73    4.307908  (  2.073247   0.097745  -0.000002)
  19:      1282.32    9.298717  (  3.049257   0.027315   0.000001)
  20:      1395.79    0.627104  (  0.008171  -0.791857   0.000040)
  21:      1437.98    7.878111  (  0.023536  -2.806699  -0.000045)
  22:      1547.75    0.023368  ( -0.152751  -0.005957  -0.000002)
  23:      3201.42    3.301757  ( -1.816635  -0.039944  -0.000004)
  24:      3214.32    4.002179  (  0.033398  -2.000266   0.000001)
  25:      3244.45    0.061472  (  0.243585   0.046246  -0.000002)
  26:      3247.03    1.287665  ( -0.026718   1.134439  -0.000001)

--------------------------
THERMOCHEMISTRY AT 298.15K
--------------------------

Temperature         ... 298.15 K
Pressure            ... 1.00 atm
Total Mass          ... 84.14 AMU

Throughout the following assumptions are being made:
  (1) The electronic state is orbitally nondegenerate
  (2) There are no thermally accessible electronically excited states
  (3) Hindered rotations indicated by low frequency modes are not
      treated as such but are treated as vibrations and this may
      cause some error
  (4) All equations used are the standard statistical mechanics
      equations for an ideal gas
  (5) All vibrations are strictly harmonic

freq.     462.81  E(vib)   ...       0.16
freq.     579.54  E(vib)   ...       0.11
freq.     620.78  E(vib)   ...       0.09
freq.     693.13  E(vib)   ...       0.07
freq.     723.55  E(vib)   ...       0.06
freq.     758.73  E(vib)   ...       0.06
freq.     843.82  E(vib)   ...       0.04
freq.     882.16  E(vib)   ...       0.04
freq.     884.38  E(vib)   ...       0.04
freq.     916.95  E(vib)   ...       0.03
freq.    1059.20  E(vib)   ...       0.02
freq.    1105.41  E(vib)   ...       0.02
freq.    1105.73  E(vib)   ...       0.02
freq.    1282.32  E(vib)   ...       0.01
freq.    1395.79  E(vib)   ...       0.00
freq.    1437.98  E(vib)   ...       0.00
freq.    1547.75  E(vib)   ...       0.00
freq.    3201.42  E(vib)   ...       0.00
freq.    3214.32  E(vib)   ...       0.00
freq.    3244.45  E(vib)   ...       0.00
freq.    3247.03  E(vib)   ...       0.00

------------
INNER ENERGY
------------

The inner energy is: U= E(el) + E(ZPE) + E(vib) + E(rot) + E(trans)
    E(el)   - is the total energy from the electronic structure calculation
              = E(kin-el) + E(nuc-el) + E(el-el) + E(nuc-nuc)
    E(ZPE)  - the the zero temperature vibrational energy from the frequency calculation
    E(vib)  - the the finite temperature correction to E(ZPE) due to population
              of excited vibrational states
    E(rot)  - is the rotational thermal energy
    E(trans)- is the translational thermal energy

Summary of contributions to the inner energy U:
Electronic energy                ...   -552.94937988 Eh
Zero point energy                ...      0.06653903 Eh      41.75 kcal/mol
Thermal vibrational correction   ...      0.00122419 Eh       0.77 kcal/mol
Thermal rotational correction    ...      0.00141627 Eh       0.89 kcal/mol
Thermal translational correction ...      0.00141627 Eh       0.89 kcal/mol
-----------------------------------------------------------------------
Total thermal energy                   -552.87878412 Eh

Summary of corrections to the electronic energy:
(perhaps to be used in another calculation)
Total thermal correction                  0.00405674 Eh       2.55 kcal/mol
Non-thermal (ZPE) correction              0.06653903 Eh      41.75 kcal/mol
-----------------------------------------------------------------------
Total correction                          0.07059577 Eh      44.30 kcal/mol

--------
ENTHALPY
--------

The enthalpy is H = U + kB*T
                kB is Boltzmann's constant
Total free energy                 ...   -552.87878412 Eh
Thermal Enthalpy correction       ...      0.00094421 Eh       0.59 kcal/mol
-----------------------------------------------------------------------
Total Enthalpy                    ...   -552.87783991 Eh

Note: Only C1 symmetry has been detected, increase convergence thresholds
      if your molecule has a higher symmetry. Symmetry factor of 1.0 is
      used for the rotational entropy correction.

Note: Rotational entropy computed according to Herzberg
Infrared and Raman Spectra, Chapter V,1, Van Nostrand Reinhold, 1945
Point Group:  C1, Symmetry Number:   1
Rotational constants in cm-1:     0.268763     0.180686     0.108047

Vibrational entropy computed according to the QRRHO of S. Grimme
Chem.Eur.J. 2012 18 9955

-------
ENTROPY
-------

The entropy contributions are T*S = T*(S(el)+S(vib)+S(rot)+S(trans))
     S(el)   - electronic entropy
     S(vib)  - vibrational entropy
     S(rot)  - rotational entropy
     S(trans)- translational entropy
The entropies will be listed as mutliplied by the temperature to get
units of energy

Electronic entropy                ...      0.00000000 Eh      0.00 kcal/mol
Vibrational entropy               ...      0.00160211 Eh      1.01 kcal/mol
Rotational entropy                ...      0.01198934 Eh      7.52 kcal/mol
Translational entropy             ...      0.01862660 Eh     11.69 kcal/mol
-----------------------------------------------------------------------
Final entropy term                ...      0.03221805 Eh     20.22 kcal/mol

In case the symmetry of your molecule has not been determined correctly
or in case you have a reason to use a different symmetry number we print
out the resulting rotational entropy values for sn=1,12 :
 --------------------------------------------------------
|  sn= 1 | S(rot)=       0.01198934 Eh      7.52 kcal/mol|
|  sn= 2 | S(rot)=       0.01133488 Eh      7.11 kcal/mol|
|  sn= 3 | S(rot)=       0.01095205 Eh      6.87 kcal/mol|
|  sn= 4 | S(rot)=       0.01068042 Eh      6.70 kcal/mol|
|  sn= 5 | S(rot)=       0.01046974 Eh      6.57 kcal/mol|
|  sn= 6 | S(rot)=       0.01029759 Eh      6.46 kcal/mol|
|  sn= 7 | S(rot)=       0.01015204 Eh      6.37 kcal/mol|
|  sn= 8 | S(rot)=       0.01002597 Eh      6.29 kcal/mol|
|  sn= 9 | S(rot)=       0.00991476 Eh      6.22 kcal/mol|
|  sn=10 | S(rot)=       0.00981528 Eh      6.16 kcal/mol|
|  sn=11 | S(rot)=       0.00972529 Eh      6.10 kcal/mol|
|  sn=12 | S(rot)=       0.00964313 Eh      6.05 kcal/mol|
 --------------------------------------------------------

-------------------
GIBBS FREE ENERGY
-------------------

The Gibbs free energy is G = H - T*S

Total enthalpy                    ...   -552.87783991 Eh
Total entropy correction          ...     -0.03221805 Eh    -20.22 kcal/mol
-----------------------------------------------------------------------
Final Gibbs free energy         ...   -552.91005796 Eh

For completeness - the Gibbs free energy minus the electronic energy
G-E(el)                           ...      0.03932192 Eh     24.67 kcal/mol

                             ****ORCA TERMINATED NORMALLY****
TOTAL RUN TIME: 0 days 0 hours 5 minutes 14 seconds 773 msec
